Title: * Z:\home\francisco\Workspace\catimex\current-meas\ltspice\Draft1.asc
Date: Mon Mar 19 15:05:55 2018
Plotname: DC transfer characteristic
Flags: real forward
No. Variables: 68
No. Points:            0
Offset:   0.0000000000000000e+000
Command: Linear Technology Corporation LTspice IV
Backannotation: u1 1 2 3 4 6 7
Backannotation: u2 1 2 3 4 5
Backannotation: u3 1 2 3 4 5
Backannotation: u4 1 2 3 4 6 7
Backannotation: u1:amp1 10 18 17 15 75 54
Backannotation: u4:amp1 10 18 17 15 75 54
Variables:
